
     Program PWSCF v.6.7MaX starts on 22Jul2021 at 16:44:13 

     This program is part of the open-source Quantum ESPRESSO suite
     for quantum simulation of materials; please cite
         "P. Giannozzi et al., J. Phys.:Condens. Matter 21 395502 (2009);
         "P. Giannozzi et al., J. Phys.:Condens. Matter 29 465901 (2017);
          URL http://www.quantum-espresso.org", 
     in publications or presentations arising from this work. More details at
     http://www.quantum-espresso.org/quote

     Parallel version (MPI), running on     1 processors

     MPI processes distributed on     1 nodes
     Waiting for input...
     Reading input from standard input

     Current dimensions of program PWSCF are:
     Max number of different atomic species (ntypx) = 10
     Max number of k-points (npk) =  40000
     Max angular momentum in pseudopotentials (lmaxx) =  3
     Message from routine read_pp_mesh:
     mesh size missing, using the one in header
     Message from routine read_pp_mesh:
     mesh size missing, using the one in header
     Message from routine read_pp_mesh:
     mesh size missing, using the one in header

     Subspace diagonalization in iterative solution of the eigenvalue problem:
     a serial algorithm will be used

 
     G-vector sticks info
     --------------------
     sticks:   dense  smooth     PW     G-vecs:    dense   smooth      PW
     Sum        1353    1353    401                37561    37561    6031
 


     bravais-lattice index     =            1
     lattice parameter (alat)  =       7.2613  a.u.
     unit-cell volume          =     382.8628 (a.u.)^3
     number of atoms/cell      =            5
     number of atomic types    =            3
     number of electrons       =        41.00
     number of Kohn-Sham states=           55
     kinetic-energy cutoff     =      81.0000  Ry
     charge density cutoff     =     324.0000  Ry
     scf convergence threshold =      1.0E-08
     mixing beta               =       0.3000
     number of iterations used =            8  plain     mixing
     Exchange-correlation= PBE
                           (   1   4   3   4   0   0   0)

     celldm(1)=   7.261300  celldm(2)=   0.000000  celldm(3)=   0.000000
     celldm(4)=   0.000000  celldm(5)=   0.000000  celldm(6)=   0.000000

     crystal axes: (cart. coord. in units of alat)
               a(1) = (   1.000000   0.000000   0.000000 )  
               a(2) = (   0.000000   1.000000   0.000000 )  
               a(3) = (   0.000000   0.000000   1.000000 )  

     reciprocal axes: (cart. coord. in units 2 pi/alat)
               b(1) = (  1.000000  0.000000  0.000000 )  
               b(2) = (  0.000000  1.000000  0.000000 )  
               b(3) = (  0.000000  0.000000  1.000000 )  


     PseudoPot. # 1 for Sr read from file:
     ./PP/Sr_ONCV_PBE-1.0.upf
     MD5 check sum: 78fc4efdafbc3dc123c8ae2ba82404d1
     Pseudo is Norm-conserving, Zval = 10.0
     Generated using ONCVPSP code by D. R. Hamann
     Using radial grid of  602 points,  6 beta functions with: 
                l(1) =   0
                l(2) =   0
                l(3) =   1
                l(4) =   1
                l(5) =   2
                l(6) =   2

     PseudoPot. # 2 for V  read from file:
     ./PP/V_ONCV_PBE-1.0.upf
     MD5 check sum: c2b49fb55f89a022ba3f2a4f0f778651
     Pseudo is Norm-conserving, Zval = 13.0
     Generated using ONCVPSP code by D. R. Hamann
     Using radial grid of  602 points,  6 beta functions with: 
                l(1) =   0
                l(2) =   0
                l(3) =   1
                l(4) =   1
                l(5) =   2
                l(6) =   2

     PseudoPot. # 3 for O  read from file:
     ./PP/O_ONCV_PBE-1.0.upf
     MD5 check sum: 80a85145cbbb6f60b39549a50e3ff56c
     Pseudo is Norm-conserving, Zval =  6.0
     Generated using ONCVPSP code by D. R. Hamann
     Using radial grid of  602 points,  4 beta functions with: 
                l(1) =   0
                l(2) =   0
                l(3) =   1
                l(4) =   1

     atomic species   valence    mass     pseudopotential
        Sr            10.00    87.62000     Sr( 1.00)
        V             13.00    50.94200     V ( 1.00)
        O              6.00    15.99900     O ( 1.00)

     48 Sym. Ops., with inversion, found



   Cartesian axes

     site n.     atom                  positions (alat units)
         1           Sr  tau(   1) = (   0.0000000   0.0000000   0.0000000  )
         2           V   tau(   2) = (   0.5000000   0.5000000   0.5000000  )
         3           O   tau(   3) = (   0.5000000   0.0000000   0.5000000  )
         4           O   tau(   4) = (   0.5000000   0.5000000   0.0000000  )
         5           O   tau(   5) = (   0.0000000   0.5000000   0.5000000  )

     number of k points=    20  Gaussian smearing, width (Ry)=  0.0200
                       cart. coord. in units 2pi/alat
        k(    1) = (   0.0000000   0.0000000   0.0000000), wk =   0.0092593
        k(    2) = (   0.0000000   0.0000000   0.1666667), wk =   0.0555556
        k(    3) = (   0.0000000   0.0000000   0.3333333), wk =   0.0555556
        k(    4) = (   0.0000000   0.0000000  -0.5000000), wk =   0.0277778
        k(    5) = (   0.0000000   0.1666667   0.1666667), wk =   0.1111111
        k(    6) = (   0.0000000   0.1666667   0.3333333), wk =   0.2222222
        k(    7) = (   0.0000000   0.1666667  -0.5000000), wk =   0.1111111
        k(    8) = (   0.0000000   0.3333333   0.3333333), wk =   0.1111111
        k(    9) = (   0.0000000   0.3333333  -0.5000000), wk =   0.1111111
        k(   10) = (   0.0000000  -0.5000000  -0.5000000), wk =   0.0277778
        k(   11) = (   0.1666667   0.1666667   0.1666667), wk =   0.0740741
        k(   12) = (   0.1666667   0.1666667   0.3333333), wk =   0.2222222
        k(   13) = (   0.1666667   0.1666667  -0.5000000), wk =   0.1111111
        k(   14) = (   0.1666667   0.3333333   0.3333333), wk =   0.2222222
        k(   15) = (   0.1666667   0.3333333  -0.5000000), wk =   0.2222222
        k(   16) = (   0.1666667  -0.5000000  -0.5000000), wk =   0.0555556
        k(   17) = (   0.3333333   0.3333333   0.3333333), wk =   0.0740741
        k(   18) = (   0.3333333   0.3333333  -0.5000000), wk =   0.1111111
        k(   19) = (   0.3333333  -0.5000000  -0.5000000), wk =   0.0555556
        k(   20) = (  -0.5000000  -0.5000000  -0.5000000), wk =   0.0092593

     Dense  grid:    37561 G-vectors     FFT dimensions: (  45,  45,  45)

     Estimated max dynamical RAM per process >     123.86 MB

     Initial potential from superposition of free atoms

     starting charge   40.63139, renormalised to   41.00000
     Starting wfcs are random

     total cpu time spent up to now is        2.9 secs

     Self-consistent Calculation

     iteration #  1     ecut=    81.00 Ry     beta= 0.30
     CG style diagonalization
     c_bands:  2 eigenvalues not converged
     c_bands:  1 eigenvalues not converged
     c_bands:  1 eigenvalues not converged
     ethr =  1.00E-02,  avg # of iterations = 10.3

     total cpu time spent up to now is       36.0 secs

     total energy              =    -300.48510164 Ry
     estimated scf accuracy    <       1.66314127 Ry

     iteration #  2     ecut=    81.00 Ry     beta= 0.30
     CG style diagonalization
     ethr =  4.06E-03,  avg # of iterations =  3.0

     total cpu time spent up to now is       45.8 secs

     total energy              =    -300.90813133 Ry
     estimated scf accuracy    <       0.13319282 Ry

     iteration #  3     ecut=    81.00 Ry     beta= 0.30
     CG style diagonalization
     ethr =  3.25E-04,  avg # of iterations =  3.2

     total cpu time spent up to now is       56.1 secs

     total energy              =    -300.93313800 Ry
     estimated scf accuracy    <       0.02011793 Ry

     iteration #  4     ecut=    81.00 Ry     beta= 0.30
     CG style diagonalization
     c_bands:  1 eigenvalues not converged
     c_bands:  1 eigenvalues not converged
     ethr =  4.91E-05,  avg # of iterations =  3.4

     total cpu time spent up to now is       67.3 secs

     total energy              =    -300.93473271 Ry
     estimated scf accuracy    <       0.00647148 Ry

     iteration #  5     ecut=    81.00 Ry     beta= 0.30
     CG style diagonalization
     ethr =  1.58E-05,  avg # of iterations =  3.2

     total cpu time spent up to now is       77.7 secs

     total energy              =    -300.93528806 Ry
     estimated scf accuracy    <       0.00044461 Ry

     iteration #  6     ecut=    81.00 Ry     beta= 0.30
     CG style diagonalization
     ethr =  1.08E-06,  avg # of iterations =  3.5

     total cpu time spent up to now is       89.1 secs

     total energy              =    -300.93537997 Ry
     estimated scf accuracy    <       0.00027934 Ry

     iteration #  7     ecut=    81.00 Ry     beta= 0.30
     CG style diagonalization
     ethr =  6.81E-07,  avg # of iterations =  3.0

     total cpu time spent up to now is       98.8 secs

     total energy              =    -300.93542271 Ry
     estimated scf accuracy    <       0.00000190 Ry

     iteration #  8     ecut=    81.00 Ry     beta= 0.30
     CG style diagonalization
     ethr =  4.64E-09,  avg # of iterations =  3.5

     total cpu time spent up to now is      109.9 secs

     total energy              =    -300.93542397 Ry
     estimated scf accuracy    <       0.00000351 Ry

     iteration #  9     ecut=    81.00 Ry     beta= 0.30
     CG style diagonalization
     ethr =  4.64E-09,  avg # of iterations =  3.0

     total cpu time spent up to now is      119.5 secs

     total energy              =    -300.93542409 Ry
     estimated scf accuracy    <       0.00000061 Ry

     iteration # 10     ecut=    81.00 Ry     beta= 0.30
     CG style diagonalization
     ethr =  1.49E-09,  avg # of iterations =  3.0

     total cpu time spent up to now is      129.2 secs

     total energy              =    -300.93542408 Ry
     estimated scf accuracy    <       0.00000012 Ry

     iteration # 11     ecut=    81.00 Ry     beta= 0.30
     CG style diagonalization
     ethr =  3.01E-10,  avg # of iterations =  3.0

     total cpu time spent up to now is      138.9 secs

     End of self-consistent calculation

          k = 0.0000 0.0000 0.0000 (  4729 PWs)   bands (ev):

   -53.3280 -27.1638 -27.1638 -27.1638 -21.9967  -7.2037  -6.0231  -6.0231
    -3.9947  -3.9947  -3.9947   7.3251   7.3251   7.3251   9.2670   9.2670
     9.2670  10.1031  10.1031  10.1031  11.6166  11.6166  11.6166  13.8753
    13.8753  16.1281  16.1281  17.2665  19.1024  19.1024  19.1024  25.8617
    28.0228  28.0228  28.0228  31.9252  31.9252  31.9252  32.2616  32.2616
    32.3632  33.7717  33.7717  33.7717  37.3002  37.3002  37.3002  41.1760
    41.1760  41.1760  41.7764  41.7764  41.7764  44.9933  44.9983

          k = 0.0000 0.0000 0.1667 (  4733 PWs)   bands (ev):

   -53.3278 -27.1727 -27.1634 -27.1634 -21.9887  -7.2144  -6.0538  -6.0120
    -3.9793  -3.9793  -3.8125   6.9479   7.3112   7.3112   8.8666   8.8666
     9.0274   9.3295   9.9173   9.9173  11.6466  12.2417  12.2417  13.8809
    14.6708  16.5929  16.6163  17.9112  19.0473  19.4072  19.4072  25.8387
    27.8950  27.9672  27.9672  30.3094  30.4277  31.4337  31.4337  32.0332
    33.3251  33.8299  33.8299  34.4969  36.9181  36.9181  37.7912  39.7483
    41.6727  41.6727  41.9259  41.9259  41.9379  45.2247  45.3445

          k = 0.0000 0.0000 0.3333 (  4725 PWs)   bands (ev):

   -53.3275 -27.1904 -27.1626 -27.1626 -21.9727  -7.3131  -5.9894  -5.9624
    -3.9482  -3.9482  -3.5094   6.1888   7.2966   7.2966   8.2378   8.2378
     8.3239   8.6090   9.7303   9.7303  11.7080  13.1491  13.1491  13.8885
    15.7467  17.5959  17.6736  18.9343  19.5505  20.0339  20.0339  24.9964
    26.2953  27.8850  27.8850  29.1992  30.1419  30.4855  30.4855  31.0922
    32.9780  33.7609  33.7609  35.4898  36.7332  36.7332  36.7400  39.7932
    40.3641  40.3641  42.7402  43.7811  43.7811  45.1630  45.9195

          k = 0.0000 0.0000-0.5000 (  4700 PWs)   bands (ev):

   -53.3273 -27.1992 -27.1622 -27.1622 -21.9646  -7.3863  -5.9780  -5.8631
    -3.9325  -3.9325  -3.3798   5.8082   7.3054   7.3054   7.9487   7.9629
     7.9629   8.4224   9.6595   9.6595  11.7394  13.5388  13.5388  13.8914
    16.1686  18.1033  18.3104  18.8762  20.3586  20.3586  21.3687  22.8592
    25.6493  27.8808  27.8808  28.8294  29.9792  29.9792  30.4923  32.0332
    32.8181  32.9399  33.6454  33.6454  37.0071  37.0071  37.6822  39.3535
    39.3535  40.0841  44.2332  44.9868  45.4208  45.4209  46.1585

          k = 0.0000 0.1667 0.1667 (  4723 PWs)   bands (ev):

   -53.3277 -27.1725 -27.1720 -27.1630 -21.9813  -7.1794  -6.1054  -6.0019
    -3.9634  -3.8862  -3.7581   6.7546   7.1131   7.3041   8.1397   8.5999
     9.1174   9.2553   9.6154   9.6187  12.1927  12.3133  12.5109  14.2683
    15.1177  16.9891  17.0634  18.2964  19.3154  19.4232  19.7531  25.8443
    27.1650  27.8432  28.3354  29.1826  29.8609  30.7556  31.3104  32.2107
    33.1778  33.4649  34.0185  34.3500  36.5203  37.2011  38.3112  40.1039
    40.6279  41.5984  41.7118  42.6055  42.9646  45.0297  45.5562

          k = 0.0000 0.1667 0.3333 (  4724 PWs)   bands (ev):

   -53.3273 -27.1898 -27.1712 -27.1622 -21.9664  -7.1912  -6.0872  -5.9597
    -3.9313  -3.8468  -3.5507   6.1378   6.9189   7.3055   7.3302   8.0812
     8.5608   9.1985   9.3264   9.4628  12.2774  13.1495  13.1890  14.3849
    16.1423  17.8345  18.1334  19.2773  19.2853  20.0390  20.5324  24.9558
    26.3274  27.1046  27.5618  28.1507  29.4949  29.9451  31.6286  31.8479
    32.0427  33.8429  34.1413  35.4566  36.0655  36.5755  37.8766  39.5884
    39.6667  41.2825  43.0259  43.1317  44.7339  44.7586  45.7054

          k = 0.0000 0.1667-0.5000 (  4726 PWs)   bands (ev):

   -53.3271 -27.1985 -27.1708 -27.1618 -21.9589  -7.2337  -5.9855  -5.9703
    -3.9150  -3.8394  -3.4517   5.7848   6.8106   7.0452   7.3284   7.8241
     8.3868   9.1812   9.2314   9.3280  12.2963  13.5323  13.5506  14.3965
    16.5701  18.3410  18.7664  19.2486  19.7550  20.3806  21.9849  22.7270
    25.7188  26.9882  27.4754  27.7126  29.1977  30.2781  31.2097  31.5066
    33.1452  33.5701  33.6971  34.9348  36.6460  36.8638  36.9061  38.1145
    40.0058  42.5247  43.1943  43.5020  44.6432  45.4159  45.4335

          k = 0.0000 0.3333 0.3333 (  4703 PWs)   bands (ev):

   -53.3270 -27.1887 -27.1883 -27.1614 -21.9539  -6.9431  -6.2440  -5.9636
    -3.8969  -3.6914  -3.6020   5.9164   6.3895   6.3989   7.3379   7.7560
     8.6425   8.8250   8.9649  10.0133  13.0994  13.1917  13.4836  14.7406
    17.0943  18.3572  19.2111  19.2893  19.9649  20.1047  21.1981  24.9232
    25.0837  26.5889  26.8733  27.0977  27.5531  28.9273  32.6915  32.9131
    33.0200  33.9707  34.1105  35.0234  36.1889  36.7095  37.8804  39.5191
    40.1785  40.5193  40.9988  43.1196  44.3361  45.3409  45.6936

          k = 0.0000 0.3333-0.5000 (  4704 PWs)   bands (ev):

   -53.3268 -27.1971 -27.1879 -27.1610 -21.9476  -6.8423  -6.2040  -6.0507
    -3.8795  -3.6755  -3.5656   5.6952   5.9502   6.2971   7.3895   7.5600
     8.6420   8.7295   8.8984  10.1474  13.1470  13.5235  13.7223  14.8099
    17.5495  18.8305  19.0445  20.0277  20.0351  20.4314  22.5745  22.7873
    25.1453  25.7963  26.1663  27.1613  27.2988  28.6793  32.4656  33.1792
    33.8120  34.2752  34.5546  35.9953  36.1052  36.2860  36.5598  38.3952
    40.5606  40.7792  42.4716  43.0070  43.4043  44.5645  44.8050

          k = 0.0000-0.5000-0.5000 (  4684 PWs)   bands (ev):

   -53.3266 -27.1964 -27.1964 -27.1606 -21.9418  -6.4436  -6.3037  -6.3037
    -3.8616  -3.6011  -3.6011   5.5263   5.6379   6.0023   7.4339   7.4339
     8.3959   8.8978   8.8978  10.3937  13.5207  13.5207  13.8907  14.8984
    18.0482  18.7676  19.0912  20.4614  20.4614  21.1736  23.1374  23.1374
    23.1575  25.6614  25.8221  25.8221  27.0423  28.6125  33.2360  33.8739
    33.8739  34.3303  34.3303  35.8446  36.3857  36.6187  37.5954  38.9491
    38.9491  40.8708  42.3016  42.9766  43.4876  43.4883  43.7062

          k = 0.1667 0.1667 0.1667 (  4752 PWs)   bands (ev):

   -53.3275 -27.1721 -27.1716 -27.1716 -21.9743  -7.1193  -6.0675  -6.0675
    -3.9190  -3.9190  -3.6742   6.5598   7.1153   7.1153   8.0536   8.0536
     8.5100   9.5354   9.5354   9.5461  12.4688  12.5809  12.5809  15.1158
    15.1158  17.3680  17.3680  18.3924  19.6290  19.6290  20.0084  25.7545
    27.1882  27.1882  28.3234  28.5717  29.9165  29.9165  31.5328  31.5328
    33.1808  33.6579  33.6579  34.2326  35.5563  38.4563  38.4563  41.0419
    41.0419  41.4740  42.1938  42.1939  42.5927  43.7029  45.9796

          k = 0.1667 0.1667 0.3333 (  4730 PWs)   bands (ev):

   -53.3271 -27.1892 -27.1709 -27.1707 -21.9603  -7.0686  -6.0863  -5.9870
    -3.9900  -3.8009  -3.5665   6.0847   6.7749   7.1302   7.3200   7.4732
     8.3322   9.3337   9.3899   9.5345  12.5991  13.2100  13.2325  15.1025
    16.3081  18.0965  18.2883  18.9897  19.7221  19.8516  21.0632  24.8704
    26.1292  26.9538  27.4352  27.5321  29.8297  30.0777  30.2488  31.6159
    32.2493  34.0287  34.1509  34.8986  36.3029  37.1660  37.7553  39.6833
    41.0082  41.5928  42.8426  42.9340  44.0374  44.0921  44.2443

          k = 0.1667 0.1667-0.5000 (  4704 PWs)   bands (ev):

   -53.3270 -27.1978 -27.1704 -27.1703 -21.9533  -7.0828  -6.0368  -5.9440
    -4.0285  -3.7255  -3.5414   5.7679   6.6668   6.9597   7.1941   7.2073
     8.4084   9.1886   9.3295   9.4387  12.6306  13.5576  13.5905  15.0879
    16.7730  18.6063  18.7109  19.6807  19.7720  19.7897  22.5996  22.6387
    25.7692  26.1265  27.2404  27.8467  29.3987  30.2192  30.7714  31.1867
    31.6472  34.6102  34.6475  35.4580  35.9687  37.1071  37.3836  37.4303
    41.0876  41.4478  43.2947  43.6431  44.1869  44.2886  44.7699

          k = 0.1667 0.3333 0.3333 (  4700 PWs)   bands (ev):

   -53.3268 -27.1882 -27.1878 -27.1699 -21.9480  -6.8141  -6.1653  -5.9561
    -4.0077  -3.8077  -3.5983   5.9094   6.4067   6.4973   7.0367   7.3602
     7.7992   9.2925   9.4252  10.0245  13.2362  13.3140  13.5352  15.6394
    17.0853  18.5364  18.9506  19.0072  19.6681  20.1470  21.8462  24.5640
    25.2314  26.6467  26.8725  27.4917  27.6788  29.4309  30.7937  31.8715
    32.3899  34.2099  34.9135  35.3145  35.9381  37.7796  38.3463  38.8447
    40.7995  41.1407  41.7803  42.2186  42.6976  44.2202  44.6498

          k = 0.1667 0.3333-0.5000 (  4702 PWs)   bands (ev):

   -53.3266 -27.1966 -27.1874 -27.1695 -21.9418  -6.6987  -6.1493  -5.9775
    -4.0375  -3.7056  -3.6968   5.6929   6.1164   6.3090   7.1132   7.1267
     7.7873   9.3374   9.3467  10.1615  13.3020  13.6181  13.7725  15.6972
    17.5519  18.8773  19.0114  19.3094  19.6354  20.4923  22.5416  23.4726
    24.9110  25.9143  26.8360  27.0707  27.9731  28.7723  31.5559  31.6770
    32.1543  35.0866  35.6237  35.6705  36.4642  36.6170  37.6995  38.3141
    39.6268  41.1995  42.0253  42.1769  43.2824  44.1641  44.3580

          k = 0.1667-0.5000-0.5000 (  4696 PWs)   bands (ev):

   -53.3264 -27.1959 -27.1959 -27.1691 -21.9361  -6.2997  -6.2091  -6.2091
    -3.9792  -3.7547  -3.7547   5.5276   5.8858   6.0067   7.1268   7.1268
     7.6050   9.3921   9.3921  10.4164  13.6401  13.6401  13.9435  15.7895
    18.0485  18.5343  19.3585  19.5722  19.5722  21.0293  22.5988  23.8954
    23.8954  26.0855  26.4637  26.4637  27.1204  28.5861  32.1724  32.1724
    32.3328  34.8260  35.7446  35.7446  36.4802  37.8800  37.9542  38.6245
    38.6245  41.0002  41.0002  41.9107  42.4252  43.2986  44.3764

          k = 0.3333 0.3333 0.3333 (  4707 PWs)   bands (ev):

   -53.3264 -27.1872 -27.1869 -27.1869 -21.9363  -6.5262  -5.9813  -5.9813
    -4.0665  -4.0665  -3.7246   5.8575   6.4263   6.4263   6.6344   6.9093
     6.9093   9.8406   9.8406  10.1533  13.6081  13.6543  13.6543  17.0510
    17.0510  18.5543  18.6792  18.6792  19.9758  19.9758  22.1914  24.3209
    25.9177  25.9177  26.8429  28.0770  28.4312  28.4312  30.3763  30.3763
    31.7600  34.6417  35.1692  35.1692  37.2875  37.9992  37.9992  40.2853
    40.2853  40.3591  41.4383  41.4383  41.7693  43.7956  43.7957

          k = 0.3333 0.3333-0.5000 (  4720 PWs)   bands (ev):

   -53.3263 -27.1955 -27.1866 -27.1864 -21.9304  -6.3452  -6.0359  -5.8689
    -4.2160  -3.9661  -3.9012   5.6374   6.2810   6.3818   6.4412   6.7423
     6.9565   9.9084  10.0395  10.2613  13.6921  13.8630  13.8883  17.0194
    17.6410  18.5287  18.5524  18.5721  19.8222  20.5197  22.0392  24.4366
    25.2002  26.3777  26.5230  27.6961  28.6196  28.7625  29.8877  30.6514
    31.5247  34.6917  35.6438  36.3673  36.5646  36.7076  38.2176  39.7272
    39.8543  39.9460  41.9002  42.2227  42.9439  43.0321  43.1502

          k = 0.3333-0.5000-0.5000 (  4716 PWs)   bands (ev):

   -53.3261 -27.1950 -27.1950 -27.1860 -21.9246  -5.9925  -5.9786  -5.9786
    -4.2019  -4.1003  -4.1003   5.4671   6.0156   6.3767   6.4084   6.7560
     6.7560  10.1499  10.1499  10.4627  13.9298  13.9298  14.0555  17.2404
    18.0493  18.1302  18.3287  18.3287  20.0801  20.7530  21.7168  24.9126
    24.9126  26.2952  26.9701  27.8498  27.8498  28.4685  30.7689  30.7689
    31.3044  33.6906  35.4505  35.4505  37.6533  37.6533  38.1060  38.6624
    40.8871  41.0247  41.0248  41.4790  42.8130  43.5177  44.1848

          k =-0.5000-0.5000-0.5000 (  4680 PWs)   bands (ev):

   -53.3259 -27.1945 -27.1945 -27.1945 -21.9189  -5.8275  -5.8275  -5.8275
    -4.3076  -4.3076  -4.3076   5.3110   6.0200   6.0200   6.6208   6.6208
     6.6208  10.4863  10.4863  10.4863  14.1152  14.1152  14.1152  17.7803
    17.7803  17.7803  18.0497  18.0497  20.6202  20.6202  21.3461  25.4156
    25.4156  25.4156  27.5210  28.2955  28.2955  28.2955  30.9305  30.9305
    30.9305  33.6578  33.6578  33.6578  39.4140  39.4140  39.4140  39.4894
    39.4894  39.4894  40.5321  43.2347  43.2347  43.3028  43.3029

     the Fermi energy is    12.5024 ev

!    total energy              =    -300.93542410 Ry
     estimated scf accuracy    <          2.3E-09 Ry
     smearing contrib. (-TS)   =      -0.00522998 Ry
     internal energy E=F+TS    =    -300.93019413 Ry

     The total energy is F=E-TS. E is the sum of the following terms:
     one-electron contribution =     -95.97637052 Ry
     hartree contribution      =      70.43985472 Ry
     xc contribution           =     -46.97821239 Ry
     ewald contribution        =    -228.41546594 Ry

     convergence has been achieved in  11 iterations

     Forces acting on atoms (cartesian axes, Ry/au):

     atom    1 type  1   force =     0.00000000   -0.00000000    0.00000000
     atom    2 type  2   force =     0.00000000   -0.00000000    0.00000000
     atom    3 type  3   force =     0.00000000    0.00000000    0.00000000
     atom    4 type  3   force =     0.00000000    0.00000000    0.00000000
     atom    5 type  3   force =     0.00000000    0.00000000    0.00000000

     Total force =     0.000000     Total SCF correction =     0.000000


     Computing stress (Cartesian axis) and pressure

          total   stress  (Ry/bohr**3)                   (kbar)     P=       21.41
   0.00014556   0.00000000   0.00000000           21.41        0.00        0.00
   0.00000000   0.00014556   0.00000000            0.00       21.41        0.00
   0.00000000   0.00000000   0.00014556            0.00        0.00       21.41


     Writing output data file ./tmp/scf/SrVO3.save/
 
     init_run     :      2.73s CPU      2.83s WALL (       1 calls)
     electrons    :    135.32s CPU    136.02s WALL (       1 calls)
     forces       :      0.35s CPU      0.35s WALL (       1 calls)
     stress       :      1.75s CPU      1.77s WALL (       1 calls)

     Called by init_run:
     wfcinit      :      2.64s CPU      2.72s WALL (       1 calls)
     potinit      :      0.03s CPU      0.04s WALL (       1 calls)
     hinit0       :      0.03s CPU      0.03s WALL (       1 calls)

     Called by electrons:
     c_bands      :    122.06s CPU    122.73s WALL (      11 calls)
     sum_band     :     12.89s CPU     12.92s WALL (      11 calls)
     v_of_rho     :      0.32s CPU      0.33s WALL (      12 calls)
     mix_rho      :      0.06s CPU      0.06s WALL (      11 calls)

     Called by c_bands:
     init_us_2    :      0.82s CPU      0.82s WALL (     500 calls)
     ccgdiagg     :     97.34s CPU     97.96s WALL (     220 calls)
     wfcrot       :     26.52s CPU     26.60s WALL (     220 calls)

     Called by *cgdiagg:
     h_psi        :    103.71s CPU    104.22s WALL (   35591 calls)

     Called by h_psi:
     h_psi:calbec :      6.63s CPU      6.65s WALL (   35591 calls)
     vloc_psi     :     90.16s CPU     90.61s WALL (   35591 calls)
     add_vuspsi   :      6.38s CPU      6.42s WALL (   35591 calls)
     hs_1psi      :     79.60s CPU     80.03s WALL (   35371 calls)
     s_1psi       :      5.73s CPU      5.77s WALL (   35371 calls)

     General routines
     calbec       :     12.31s CPU     12.40s WALL (   71062 calls)
     fft          :      0.11s CPU      0.11s WALL (     127 calls)
     ffts         :      0.01s CPU      0.01s WALL (      11 calls)
     fftw         :     91.66s CPU     92.07s WALL (  107042 calls)
 
     Parallel routines
 
     PWSCF        :   2m20.20s CPU   2m21.13s WALL

 
   This run was terminated on:  16:46:34  22Jul2021            

=------------------------------------------------------------------------------=
   JOB DONE.
=------------------------------------------------------------------------------=
